 # Fcc Al oriented X=[112] Y=[-110] Z=[-1-11].
 
         750  atoms
           4  atom types
 
      0.000000000000      24.776588750000  xlo xhi
      0.000000000000      14.304770200000  ylo yhi
      0.000000000000      35.039387850000  zlo zhi
 
Masses
 
            1   26.98153860             # Al
            2   55.84500000             # Fe
            3   24.30500000             # Mg
            4   91.22400000             # Zr
 
Atoms # atomic
 
         1    1        0.000000000000       0.000000000000       0.000000000000
         2    1        3.303545170000       0.000000000000       2.335959190000
         3    1        1.651772580000       0.000000000000       4.671918380000
         4    1        2.477658870000       1.430477020000       0.000000000000
         5    1        0.825886290000       1.430477020000       2.335959190000
         6    1        4.129431460000       1.430477020000       4.671918380000
         7    1        4.955317750000       0.000000000000       0.000000000000
         8    1        8.258862920000       0.000000000000       2.335959190000
         9    1        6.607090330000       0.000000000000       4.671918380000
        10    1        7.432976620000       1.430477020000       0.000000000000
        11    1        5.781204040000       1.430477020000       2.335959190000
        12    1        9.084749210000       1.430477020000       4.671918380000
        13    1        9.910635500000       0.000000000000       0.000000000000
        14    1       13.214180670000       0.000000000000       2.335959190000
        15    1       11.562408080000       0.000000000000       4.671918380000
        16    1       12.388294370000       1.430477020000       0.000000000000
        17    1       10.736521790000       1.430477020000       2.335959190000
        18    1       14.040066960000       1.430477020000       4.671918380000
        19    1       14.865953250000       0.000000000000       0.000000000000
        20    1       18.169498420000       0.000000000000       2.335959190000
        21    2       16.517725830000       0.000000000000       4.671918380000
        22    1       17.343612120000       1.430477020000       0.000000000000
        23    1       15.691839540000       1.430477020000       2.335959190000
        24    1       18.995384710000       1.430477020000       4.671918380000
        25    1       19.821271000000       0.000000000000       0.000000000000
        26    1       23.124816170000       0.000000000000       2.335959190000
        27    1       21.473043580000       0.000000000000       4.671918380000
        28    1       22.298929870000       1.430477020000       0.000000000000
        29    1       20.647157290000       1.430477020000       2.335959190000
        30    1       23.950702460000       1.430477020000       4.671918380000
        31    1        0.000000000000       2.860954040000       0.000000000000
        32    1        3.303545170000       2.860954040000       2.335959190000
        33    1        1.651772580000       2.860954040000       4.671918380000
        34    1        2.477658870000       4.291431060000       0.000000000000
        35    1        0.825886290000       4.291431060000       2.335959190000
        36    1        4.129431460000       4.291431060000       4.671918380000
        37    1        4.955317750000       2.860954040000       0.000000000000
        38    1        8.258862920000       2.860954040000       2.335959190000
        39    1        6.607090330000       2.860954040000       4.671918380000
        40    1        7.432976620000       4.291431060000       0.000000000000
        41    1        5.781204040000       4.291431060000       2.335959190000
        42    1        9.084749210000       4.291431060000       4.671918380000
        43    3        9.910635500000       2.860954040000       0.000000000000
        44    1       13.214180670000       2.860954040000       2.335959190000
        45    1       11.562408080000       2.860954040000       4.671918380000
        46    1       12.388294370000       4.291431060000       0.000000000000
        47    1       10.736521790000       4.291431060000       2.335959190000
        48    1       14.040066960000       4.291431060000       4.671918380000
        49    1       14.865953250000       2.860954040000       0.000000000000
        50    1       18.169498420000       2.860954040000       2.335959190000
        51    1       16.517725830000       2.860954040000       4.671918380000
        52    1       17.343612120000       4.291431060000       0.000000000000
        53    1       15.691839540000       4.291431060000       2.335959190000
        54    1       18.995384710000       4.291431060000       4.671918380000
        55    1       19.821271000000       2.860954040000       0.000000000000
        56    1       23.124816170000       2.860954040000       2.335959190000
        57    1       21.473043580000       2.860954040000       4.671918380000
        58    1       22.298929870000       4.291431060000       0.000000000000
        59    1       20.647157290000       4.291431060000       2.335959190000
        60    1       23.950702460000       4.291431060000       4.671918380000
        61    1        0.000000000000       5.721908080000       0.000000000000
        62    1        3.303545170000       5.721908080000       2.335959190000
        63    1        1.651772580000       5.721908080000       4.671918380000
        64    1        2.477658870000       7.152385100000       0.000000000000
        65    1        0.825886290000       7.152385100000       2.335959190000
        66    1        4.129431460000       7.152385100000       4.671918380000
        67    1        4.955317750000       5.721908080000       0.000000000000
        68    1        8.258862920000       5.721908080000       2.335959190000
        69    1        6.607090330000       5.721908080000       4.671918380000
        70    1        7.432976620000       7.152385100000       0.000000000000
        71    1        5.781204040000       7.152385100000       2.335959190000
        72    1        9.084749210000       7.152385100000       4.671918380000
        73    1        9.910635500000       5.721908080000       0.000000000000
        74    1       13.214180670000       5.721908080000       2.335959190000
        75    1       11.562408080000       5.721908080000       4.671918380000
        76    1       12.388294370000       7.152385100000       0.000000000000
        77    1       10.736521790000       7.152385100000       2.335959190000
        78    1       14.040066960000       7.152385100000       4.671918380000
        79    1       14.865953250000       5.721908080000       0.000000000000
        80    1       18.169498420000       5.721908080000       2.335959190000
        81    1       16.517725830000       5.721908080000       4.671918380000
        82    1       17.343612120000       7.152385100000       0.000000000000
        83    1       15.691839540000       7.152385100000       2.335959190000
        84    1       18.995384710000       7.152385100000       4.671918380000
        85    1       19.821271000000       5.721908080000       0.000000000000
        86    1       23.124816170000       5.721908080000       2.335959190000
        87    1       21.473043580000       5.721908080000       4.671918380000
        88    1       22.298929870000       7.152385100000       0.000000000000
        89    1       20.647157290000       7.152385100000       2.335959190000
        90    3       23.950702460000       7.152385100000       4.671918380000
        91    1        0.000000000000       8.582862120000       0.000000000000
        92    1        3.303545170000       8.582862120000       2.335959190000
        93    1        1.651772580000       8.582862120000       4.671918380000
        94    1        2.477658870000      10.013339140000       0.000000000000
        95    1        0.825886290000      10.013339140000       2.335959190000
        96    1        4.129431460000      10.013339140000       4.671918380000
        97    1        4.955317750000       8.582862120000       0.000000000000
        98    3        8.258862920000       8.582862120000       2.335959190000
        99    1        6.607090330000       8.582862120000       4.671918380000
       100    1        7.432976620000      10.013339140000       0.000000000000
       101    1        5.781204040000      10.013339140000       2.335959190000
       102    1        9.084749210000      10.013339140000       4.671918380000
       103    1        9.910635500000       8.582862120000       0.000000000000
       104    1       13.214180670000       8.582862120000       2.335959190000
       105    1       11.562408080000       8.582862120000       4.671918380000
       106    1       12.388294370000      10.013339140000       0.000000000000
       107    1       10.736521790000      10.013339140000       2.335959190000
       108    1       14.040066960000      10.013339140000       4.671918380000
       109    1       14.865953250000       8.582862120000       0.000000000000
       110    1       18.169498420000       8.582862120000       2.335959190000
       111    1       16.517725830000       8.582862120000       4.671918380000
       112    1       17.343612120000      10.013339140000       0.000000000000
       113    1       15.691839540000      10.013339140000       2.335959190000
       114    1       18.995384710000      10.013339140000       4.671918380000
       115    1       19.821271000000       8.582862120000       0.000000000000
       116    1       23.124816170000       8.582862120000       2.335959190000
       117    1       21.473043580000       8.582862120000       4.671918380000
       118    1       22.298929870000      10.013339140000       0.000000000000
       119    1       20.647157290000      10.013339140000       2.335959190000
       120    1       23.950702460000      10.013339140000       4.671918380000
       121    1        0.000000000000      11.443816160000       0.000000000000
       122    1        3.303545170000      11.443816160000       2.335959190000
       123    1        1.651772580000      11.443816160000       4.671918380000
       124    1        2.477658870000      12.874293180000       0.000000000000
       125    1        0.825886290000      12.874293180000       2.335959190000
       126    1        4.129431460000      12.874293180000       4.671918380000
       127    1        4.955317750000      11.443816160000       0.000000000000
       128    2        8.258862920000      11.443816160000       2.335959190000
       129    1        6.607090330000      11.443816160000       4.671918380000
       130    1        7.432976620000      12.874293180000       0.000000000000
       131    1        5.781204040000      12.874293180000       2.335959190000
       132    1        9.084749210000      12.874293180000       4.671918380000
       133    1        9.910635500000      11.443816160000       0.000000000000
       134    2       13.214180670000      11.443816160000       2.335959190000
       135    1       11.562408080000      11.443816160000       4.671918380000
       136    1       12.388294370000      12.874293180000       0.000000000000
       137    1       10.736521790000      12.874293180000       2.335959190000
       138    1       14.040066960000      12.874293180000       4.671918380000
       139    1       14.865953250000      11.443816160000       0.000000000000
       140    1       18.169498420000      11.443816160000       2.335959190000
       141    1       16.517725830000      11.443816160000       4.671918380000
       142    1       17.343612120000      12.874293180000       0.000000000000
       143    1       15.691839540000      12.874293180000       2.335959190000
       144    1       18.995384710000      12.874293180000       4.671918380000
       145    1       19.821271000000      11.443816160000       0.000000000000
       146    1       23.124816170000      11.443816160000       2.335959190000
       147    3       21.473043580000      11.443816160000       4.671918380000
       148    1       22.298929870000      12.874293180000       0.000000000000
       149    1       20.647157290000      12.874293180000       2.335959190000
       150    1       23.950702460000      12.874293180000       4.671918380000
       151    1        0.000000000000       0.000000000000       7.007877570000
       152    1        3.303545170000       0.000000000000       9.343836760000
       153    1        1.651772580000       0.000000000000      11.679795950000
       154    1        2.477658870000       1.430477020000       7.007877570000
       155    1        0.825886290000       1.430477020000       9.343836760000
       156    1        4.129431460000       1.430477020000      11.679795950000
       157    1        4.955317750000       0.000000000000       7.007877570000
       158    1        8.258862920000       0.000000000000       9.343836760000
       159    1        6.607090330000       0.000000000000      11.679795950000
       160    1        7.432976620000       1.430477020000       7.007877570000
       161    1        5.781204040000       1.430477020000       9.343836760000
       162    3        9.084749210000       1.430477020000      11.679795950000
       163    1        9.910635500000       0.000000000000       7.007877570000
       164    1       13.214180670000       0.000000000000       9.343836760000
       165    1       11.562408080000       0.000000000000      11.679795950000
       166    1       12.388294370000       1.430477020000       7.007877570000
       167    1       10.736521790000       1.430477020000       9.343836760000
       168    1       14.040066960000       1.430477020000      11.679795950000
       169    1       14.865953250000       0.000000000000       7.007877570000
       170    1       18.169498420000       0.000000000000       9.343836760000
       171    1       16.517725830000       0.000000000000      11.679795950000
       172    1       17.343612120000       1.430477020000       7.007877570000
       173    1       15.691839540000       1.430477020000       9.343836760000
       174    1       18.995384710000       1.430477020000      11.679795950000
       175    1       19.821271000000       0.000000000000       7.007877570000
       176    1       23.124816170000       0.000000000000       9.343836760000
       177    1       21.473043580000       0.000000000000      11.679795950000
       178    1       22.298929870000       1.430477020000       7.007877570000
       179    1       20.647157290000       1.430477020000       9.343836760000
       180    1       23.950702460000       1.430477020000      11.679795950000
       181    3        0.000000000000       2.860954040000       7.007877570000
       182    1        3.303545170000       2.860954040000       9.343836760000
       183    1        1.651772580000       2.860954040000      11.679795950000
       184    1        2.477658870000       4.291431060000       7.007877570000
       185    1        0.825886290000       4.291431060000       9.343836760000
       186    1        4.129431460000       4.291431060000      11.679795950000
       187    1        4.955317750000       2.860954040000       7.007877570000
       188    1        8.258862920000       2.860954040000       9.343836760000
       189    1        6.607090330000       2.860954040000      11.679795950000
       190    1        7.432976620000       4.291431060000       7.007877570000
       191    1        5.781204040000       4.291431060000       9.343836760000
       192    1        9.084749210000       4.291431060000      11.679795950000
       193    1        9.910635500000       2.860954040000       7.007877570000
       194    1       13.214180670000       2.860954040000       9.343836760000
       195    1       11.562408080000       2.860954040000      11.679795950000
       196    1       12.388294370000       4.291431060000       7.007877570000
       197    1       10.736521790000       4.291431060000       9.343836760000
       198    1       14.040066960000       4.291431060000      11.679795950000
       199    1       14.865953250000       2.860954040000       7.007877570000
       200    1       18.169498420000       2.860954040000       9.343836760000
       201    1       16.517725830000       2.860954040000      11.679795950000
       202    2       17.343612120000       4.291431060000       7.007877570000
       203    1       15.691839540000       4.291431060000       9.343836760000
       204    1       18.995384710000       4.291431060000      11.679795950000
       205    1       19.821271000000       2.860954040000       7.007877570000
       206    1       23.124816170000       2.860954040000       9.343836760000
       207    1       21.473043580000       2.860954040000      11.679795950000
       208    1       22.298929870000       4.291431060000       7.007877570000
       209    1       20.647157290000       4.291431060000       9.343836760000
       210    1       23.950702460000       4.291431060000      11.679795950000
       211    1        0.000000000000       5.721908080000       7.007877570000
       212    1        3.303545170000       5.721908080000       9.343836760000
       213    1        1.651772580000       5.721908080000      11.679795950000
       214    1        2.477658870000       7.152385100000       7.007877570000
       215    1        0.825886290000       7.152385100000       9.343836760000
       216    1        4.129431460000       7.152385100000      11.679795950000
       217    1        4.955317750000       5.721908080000       7.007877570000
       218    1        8.258862920000       5.721908080000       9.343836760000
       219    1        6.607090330000       5.721908080000      11.679795950000
       220    1        7.432976620000       7.152385100000       7.007877570000
       221    1        5.781204040000       7.152385100000       9.343836760000
       222    1        9.084749210000       7.152385100000      11.679795950000
       223    1        9.910635500000       5.721908080000       7.007877570000
       224    1       13.214180670000       5.721908080000       9.343836760000
       225    1       11.562408080000       5.721908080000      11.679795950000
       226    1       12.388294370000       7.152385100000       7.007877570000
       227    1       10.736521790000       7.152385100000       9.343836760000
       228    1       14.040066960000       7.152385100000      11.679795950000
       229    1       14.865953250000       5.721908080000       7.007877570000
       230    1       18.169498420000       5.721908080000       9.343836760000
       231    1       16.517725830000       5.721908080000      11.679795950000
       232    1       17.343612120000       7.152385100000       7.007877570000
       233    1       15.691839540000       7.152385100000       9.343836760000
       234    1       18.995384710000       7.152385100000      11.679795950000
       235    1       19.821271000000       5.721908080000       7.007877570000
       236    1       23.124816170000       5.721908080000       9.343836760000
       237    1       21.473043580000       5.721908080000      11.679795950000
       238    1       22.298929870000       7.152385100000       7.007877570000
       239    1       20.647157290000       7.152385100000       9.343836760000
       240    4       23.950702460000       7.152385100000      11.679795950000
       241    1        0.000000000000       8.582862120000       7.007877570000
       242    1        3.303545170000       8.582862120000       9.343836760000
       243    1        1.651772580000       8.582862120000      11.679795950000
       244    1        2.477658870000      10.013339140000       7.007877570000
       245    3        0.825886290000      10.013339140000       9.343836760000
       246    1        4.129431460000      10.013339140000      11.679795950000
       247    1        4.955317750000       8.582862120000       7.007877570000
       248    1        8.258862920000       8.582862120000       9.343836760000
       249    1        6.607090330000       8.582862120000      11.679795950000
       250    1        7.432976620000      10.013339140000       7.007877570000
       251    1        5.781204040000      10.013339140000       9.343836760000
       252    3        9.084749210000      10.013339140000      11.679795950000
       253    2        9.910635500000       8.582862120000       7.007877570000
       254    1       13.214180670000       8.582862120000       9.343836760000
       255    1       11.562408080000       8.582862120000      11.679795950000
       256    3       12.388294370000      10.013339140000       7.007877570000
       257    4       10.736521790000      10.013339140000       9.343836760000
       258    1       14.040066960000      10.013339140000      11.679795950000
       259    1       14.865953250000       8.582862120000       7.007877570000
       260    1       18.169498420000       8.582862120000       9.343836760000
       261    4       16.517725830000       8.582862120000      11.679795950000
       262    1       17.343612120000      10.013339140000       7.007877570000
       263    1       15.691839540000      10.013339140000       9.343836760000
       264    1       18.995384710000      10.013339140000      11.679795950000
       265    1       19.821271000000       8.582862120000       7.007877570000
       266    1       23.124816170000       8.582862120000       9.343836760000
       267    1       21.473043580000       8.582862120000      11.679795950000
       268    1       22.298929870000      10.013339140000       7.007877570000
       269    1       20.647157290000      10.013339140000       9.343836760000
       270    1       23.950702460000      10.013339140000      11.679795950000
       271    1        0.000000000000      11.443816160000       7.007877570000
       272    1        3.303545170000      11.443816160000       9.343836760000
       273    1        1.651772580000      11.443816160000      11.679795950000
       274    3        2.477658870000      12.874293180000       7.007877570000
       275    1        0.825886290000      12.874293180000       9.343836760000
       276    1        4.129431460000      12.874293180000      11.679795950000
       277    1        4.955317750000      11.443816160000       7.007877570000
       278    1        8.258862920000      11.443816160000       9.343836760000
       279    1        6.607090330000      11.443816160000      11.679795950000
       280    1        7.432976620000      12.874293180000       7.007877570000
       281    1        5.781204040000      12.874293180000       9.343836760000
       282    1        9.084749210000      12.874293180000      11.679795950000
       283    1        9.910635500000      11.443816160000       7.007877570000
       284    1       13.214180670000      11.443816160000       9.343836760000
       285    1       11.562408080000      11.443816160000      11.679795950000
       286    1       12.388294370000      12.874293180000       7.007877570000
       287    1       10.736521790000      12.874293180000       9.343836760000
       288    1       14.040066960000      12.874293180000      11.679795950000
       289    1       14.865953250000      11.443816160000       7.007877570000
       290    1       18.169498420000      11.443816160000       9.343836760000
       291    1       16.517725830000      11.443816160000      11.679795950000
       292    1       17.343612120000      12.874293180000       7.007877570000
       293    1       15.691839540000      12.874293180000       9.343836760000
       294    1       18.995384710000      12.874293180000      11.679795950000
       295    1       19.821271000000      11.443816160000       7.007877570000
       296    1       23.124816170000      11.443816160000       9.343836760000
       297    1       21.473043580000      11.443816160000      11.679795950000
       298    1       22.298929870000      12.874293180000       7.007877570000
       299    1       20.647157290000      12.874293180000       9.343836760000
       300    1       23.950702460000      12.874293180000      11.679795950000
       301    1        0.000000000000       0.000000000000      14.015755140000
       302    1        3.303545170000       0.000000000000      16.351714330000
       303    1        1.651772580000       0.000000000000      18.687673520000
       304    1        2.477658870000       1.430477020000      14.015755140000
       305    1        0.825886290000       1.430477020000      16.351714330000
       306    1        4.129431460000       1.430477020000      18.687673520000
       307    1        4.955317750000       0.000000000000      14.015755140000
       308    1        8.258862920000       0.000000000000      16.351714330000
       309    1        6.607090330000       0.000000000000      18.687673520000
       310    1        7.432976620000       1.430477020000      14.015755140000
       311    1        5.781204040000       1.430477020000      16.351714330000
       312    1        9.084749210000       1.430477020000      18.687673520000
       313    1        9.910635500000       0.000000000000      14.015755140000
       314    1       13.214180670000       0.000000000000      16.351714330000
       315    1       11.562408080000       0.000000000000      18.687673520000
       316    1       12.388294370000       1.430477020000      14.015755140000
       317    1       10.736521790000       1.430477020000      16.351714330000
       318    1       14.040066960000       1.430477020000      18.687673520000
       319    1       14.865953250000       0.000000000000      14.015755140000
       320    1       18.169498420000       0.000000000000      16.351714330000
       321    1       16.517725830000       0.000000000000      18.687673520000
       322    1       17.343612120000       1.430477020000      14.015755140000
       323    1       15.691839540000       1.430477020000      16.351714330000
       324    1       18.995384710000       1.430477020000      18.687673520000
       325    1       19.821271000000       0.000000000000      14.015755140000
       326    1       23.124816170000       0.000000000000      16.351714330000
       327    1       21.473043580000       0.000000000000      18.687673520000
       328    1       22.298929870000       1.430477020000      14.015755140000
       329    1       20.647157290000       1.430477020000      16.351714330000
       330    1       23.950702460000       1.430477020000      18.687673520000
       331    1        0.000000000000       2.860954040000      14.015755140000
       332    1        3.303545170000       2.860954040000      16.351714330000
       333    1        1.651772580000       2.860954040000      18.687673520000
       334    1        2.477658870000       4.291431060000      14.015755140000
       335    1        0.825886290000       4.291431060000      16.351714330000
       336    1        4.129431460000       4.291431060000      18.687673520000
       337    1        4.955317750000       2.860954040000      14.015755140000
       338    1        8.258862920000       2.860954040000      16.351714330000
       339    1        6.607090330000       2.860954040000      18.687673520000
       340    2        7.432976620000       4.291431060000      14.015755140000
       341    1        5.781204040000       4.291431060000      16.351714330000
       342    1        9.084749210000       4.291431060000      18.687673520000
       343    1        9.910635500000       2.860954040000      14.015755140000
       344    1       13.214180670000       2.860954040000      16.351714330000
       345    1       11.562408080000       2.860954040000      18.687673520000
       346    1       12.388294370000       4.291431060000      14.015755140000
       347    1       10.736521790000       4.291431060000      16.351714330000
       348    3       14.040066960000       4.291431060000      18.687673520000
       349    4       14.865953250000       2.860954040000      14.015755140000
       350    1       18.169498420000       2.860954040000      16.351714330000
       351    1       16.517725830000       2.860954040000      18.687673520000
       352    1       17.343612120000       4.291431060000      14.015755140000
       353    1       15.691839540000       4.291431060000      16.351714330000
       354    1       18.995384710000       4.291431060000      18.687673520000
       355    1       19.821271000000       2.860954040000      14.015755140000
       356    1       23.124816170000       2.860954040000      16.351714330000
       357    2       21.473043580000       2.860954040000      18.687673520000
       358    2       22.298929870000       4.291431060000      14.015755140000
       359    1       20.647157290000       4.291431060000      16.351714330000
       360    1       23.950702460000       4.291431060000      18.687673520000
       361    1        0.000000000000       5.721908080000      14.015755140000
       362    3        3.303545170000       5.721908080000      16.351714330000
       363    1        1.651772580000       5.721908080000      18.687673520000
       364    1        2.477658870000       7.152385100000      14.015755140000
       365    1        0.825886290000       7.152385100000      16.351714330000
       366    4        4.129431460000       7.152385100000      18.687673520000
       367    1        4.955317750000       5.721908080000      14.015755140000
       368    1        8.258862920000       5.721908080000      16.351714330000
       369    1        6.607090330000       5.721908080000      18.687673520000