 # Fcc Al oriented X=[112] Y=[-110] Z=[-1-11].
 
         750  atoms
           4  atom types
 
      0.000000000000      24.776588750000  xlo xhi
      0.000000000000      14.304770200000  ylo yhi
      0.000000000000      35.039387850000  zlo zhi
 
Masses
 
            1   55.84500000             # Fe
            2   26.98153860             # Al
            3   91.22400000             # Zr
            4   24.30500000             # Mg
 
Atoms # atomic
 
         1    1        0.000000000000       0.000000000000       0.000000000000
         2    2        3.303545170000       0.000000000000       2.335959190000
         3    2        1.651772580000       0.000000000000       4.671918380000
         4    1        2.477658870000       1.430477020000       0.000000000000
         5    2        0.825886290000       1.430477020000       2.335959190000
         6    2        4.129431460000       1.430477020000       4.671918380000
         7    2        4.955317750000       0.000000000000       0.000000000000
         8    2        8.258862920000       0.000000000000       2.335959190000
         9    2        6.607090330000       0.000000000000       4.671918380000
        10    2        7.432976620000       1.430477020000       0.000000000000
        11    2        5.781204040000       1.430477020000       2.335959190000
        12    2        9.084749210000       1.430477020000       4.671918380000
        13    2        9.910635500000       0.000000000000       0.000000000000
        14    2       13.214180670000       0.000000000000       2.335959190000
        15    2       11.562408080000       0.000000000000       4.671918380000
        16    2       12.388294370000       1.430477020000       0.000000000000
        17    2       10.736521790000       1.430477020000       2.335959190000
        18    2       14.040066960000       1.430477020000       4.671918380000
        19    2       14.865953250000       0.000000000000       0.000000000000
        20    2       18.169498420000       0.000000000000       2.335959190000
        21    2       16.517725830000       0.000000000000       4.671918380000
        22    2       17.343612120000       1.430477020000       0.000000000000
        23    2       15.691839540000       1.430477020000       2.335959190000
        24    2       18.995384710000       1.430477020000       4.671918380000
        25    2       19.821271000000       0.000000000000       0.000000000000
        26    2       23.124816170000       0.000000000000       2.335959190000
        27    2       21.473043580000       0.000000000000       4.671918380000
        28    2       22.298929870000       1.430477020000       0.000000000000
        29    2       20.647157290000       1.430477020000       2.335959190000
        30    2       23.950702460000       1.430477020000       4.671918380000
        31    2        0.000000000000       2.860954040000       0.000000000000
        32    2        3.303545170000       2.860954040000       2.335959190000
        33    2        1.651772580000       2.860954040000       4.671918380000
        34    2        2.477658870000       4.291431060000       0.000000000000
        35    2        0.825886290000       4.291431060000       2.335959190000
        36    2        4.129431460000       4.291431060000       4.671918380000
        37    2        4.955317750000       2.860954040000       0.000000000000
        38    2        8.258862920000       2.860954040000       2.335959190000
        39    2        6.607090330000       2.860954040000       4.671918380000
        40    2        7.432976620000       4.291431060000       0.000000000000
        41    2        5.781204040000       4.291431060000       2.335959190000
        42    2        9.084749210000       4.291431060000       4.671918380000
        43    2        9.910635500000       2.860954040000       0.000000000000
        44    2       13.214180670000       2.860954040000       2.335959190000
        45    2       11.562408080000       2.860954040000       4.671918380000
        46    2       12.388294370000       4.291431060000       0.000000000000
        47    2       10.736521790000       4.291431060000       2.335959190000
        48    2       14.040066960000       4.291431060000       4.671918380000
        49    2       14.865953250000       2.860954040000       0.000000000000
        50    2       18.169498420000       2.860954040000       2.335959190000
        51    2       16.517725830000       2.860954040000       4.671918380000
        52    2       17.343612120000       4.291431060000       0.000000000000
        53    2       15.691839540000       4.291431060000       2.335959190000
        54    2       18.995384710000       4.291431060000       4.671918380000
        55    2       19.821271000000       2.860954040000       0.000000000000
        56    2       23.124816170000       2.860954040000       2.335959190000
        57    1       21.473043580000       2.860954040000       4.671918380000
        58    2       22.298929870000       4.291431060000       0.000000000000
        59    2       20.647157290000       4.291431060000       2.335959190000
        60    2       23.950702460000       4.291431060000       4.671918380000
        61    2        0.000000000000       5.721908080000       0.000000000000
        62    2        3.303545170000       5.721908080000       2.335959190000
        63    2        1.651772580000       5.721908080000       4.671918380000
        64    2        2.477658870000       7.152385100000       0.000000000000
        65    2        0.825886290000       7.152385100000       2.335959190000
        66    2        4.129431460000       7.152385100000       4.671918380000
        67    2        4.955317750000       5.721908080000       0.000000000000
        68    2        8.258862920000       5.721908080000       2.335959190000
        69    2        6.607090330000       5.721908080000       4.671918380000
        70    2        7.432976620000       7.152385100000       0.000000000000
        71    2        5.781204040000       7.152385100000       2.335959190000
        72    2        9.084749210000       7.152385100000       4.671918380000
        73    2        9.910635500000       5.721908080000       0.000000000000
        74    2       13.214180670000       5.721908080000       2.335959190000
        75    2       11.562408080000       5.721908080000       4.671918380000
        76    2       12.388294370000       7.152385100000       0.000000000000
        77    2       10.736521790000       7.152385100000       2.335959190000
        78    2       14.040066960000       7.152385100000       4.671918380000
        79    2       14.865953250000       5.721908080000       0.000000000000
        80    2       18.169498420000       5.721908080000       2.335959190000
        81    2       16.517725830000       5.721908080000       4.671918380000
        82    2       17.343612120000       7.152385100000       0.000000000000
        83    2       15.691839540000       7.152385100000       2.335959190000
        84    2       18.995384710000       7.152385100000       4.671918380000
        85    2       19.821271000000       5.721908080000       0.000000000000
        86    2       23.124816170000       5.721908080000       2.335959190000
        87    2       21.473043580000       5.721908080000       4.671918380000
        88    2       22.298929870000       7.152385100000       0.000000000000
        89    2       20.647157290000       7.152385100000       2.335959190000
        90    2       23.950702460000       7.152385100000       4.671918380000
        91    2        0.000000000000       8.582862120000       0.000000000000
        92    2        3.303545170000       8.582862120000       2.335959190000
        93    2        1.651772580000       8.582862120000       4.671918380000
        94    2        2.477658870000      10.013339140000       0.000000000000
        95    2        0.825886290000      10.013339140000       2.335959190000
        96    2        4.129431460000      10.013339140000       4.671918380000
        97    2        4.955317750000       8.582862120000       0.000000000000
        98    2        8.258862920000       8.582862120000       2.335959190000
        99    2        6.607090330000       8.582862120000       4.671918380000
       100    2        7.432976620000      10.013339140000       0.000000000000
       101    2        5.781204040000      10.013339140000       2.335959190000
       102    2        9.084749210000      10.013339140000       4.671918380000
       103    1        9.910635500000       8.582862120000       0.000000000000
       104    2       13.214180670000       8.582862120000       2.335959190000
       105    2       11.562408080000       8.582862120000       4.671918380000
       106    2       12.388294370000      10.013339140000       0.000000000000
       107    2       10.736521790000      10.013339140000       2.335959190000
       108    2       14.040066960000      10.013339140000       4.671918380000
       109    2       14.865953250000       8.582862120000       0.000000000000
       110    2       18.169498420000       8.582862120000       2.335959190000
       111    2       16.517725830000       8.582862120000       4.671918380000
       112    2       17.343612120000      10.013339140000       0.000000000000
       113    2       15.691839540000      10.013339140000       2.335959190000
       114    2       18.995384710000      10.013339140000       4.671918380000
       115    2       19.821271000000       8.582862120000       0.000000000000
       116    2       23.124816170000       8.582862120000       2.335959190000
       117    2       21.473043580000       8.582862120000       4.671918380000
       118    2       22.298929870000      10.013339140000       0.000000000000
       119    2       20.647157290000      10.013339140000       2.335959190000
       120    2       23.950702460000      10.013339140000       4.671918380000
       121    2        0.000000000000      11.443816160000       0.000000000000
       122    2        3.303545170000      11.443816160000       2.335959190000
       123    2        1.651772580000      11.443816160000       4.671918380000
       124    2        2.477658870000      12.874293180000       0.000000000000
       125    2        0.825886290000      12.874293180000       2.335959190000
       126    2        4.129431460000      12.874293180000       4.671918380000
       127    2        4.955317750000      11.443816160000       0.000000000000
       128    2        8.258862920000      11.443816160000       2.335959190000
       129    2        6.607090330000      11.443816160000       4.671918380000
       130    2        7.432976620000      12.874293180000       0.000000000000
       131    2        5.781204040000      12.874293180000       2.335959190000
       132    2        9.084749210000      12.874293180000       4.671918380000
       133    2        9.910635500000      11.443816160000       0.000000000000
       134    2       13.214180670000      11.443816160000       2.335959190000
       135    2       11.562408080000      11.443816160000       4.671918380000
       136    2       12.388294370000      12.874293180000       0.000000000000
       137    2       10.736521790000      12.874293180000       2.335959190000
       138    2       14.040066960000      12.874293180000       4.671918380000
       139    2       14.865953250000      11.443816160000       0.000000000000
       140    2       18.169498420000      11.443816160000       2.335959190000
       141    2       16.517725830000      11.443816160000       4.671918380000
       142    2       17.343612120000      12.874293180000       0.000000000000
       143    2       15.691839540000      12.874293180000       2.335959190000
       144    3       18.995384710000      12.874293180000       4.671918380000
       145    2       19.821271000000      11.443816160000       0.000000000000
       146    2       23.124816170000      11.443816160000       2.335959190000
       147    2       21.473043580000      11.443816160000       4.671918380000
       148    2       22.298929870000      12.874293180000       0.000000000000
       149    2       20.647157290000      12.874293180000       2.335959190000
       150    2       23.950702460000      12.874293180000       4.671918380000
       151    2        0.000000000000       0.000000000000       7.007877570000
       152    2        3.303545170000       0.000000000000       9.343836760000
       153    2        1.651772580000       0.000000000000      11.679795950000
       154    2        2.477658870000       1.430477020000       7.007877570000
       155    2        0.825886290000       1.430477020000       9.343836760000
       156    2        4.129431460000       1.430477020000      11.679795950000
       157    2        4.955317750000       0.000000000000       7.007877570000
       158    2        8.258862920000       0.000000000000       9.343836760000
       159    2        6.607090330000       0.000000000000      11.679795950000
       160    4        7.432976620000       1.430477020000       7.007877570000
       161    2        5.781204040000       1.430477020000       9.343836760000
       162    2        9.084749210000       1.430477020000      11.679795950000
       163    2        9.910635500000       0.000000000000       7.007877570000
       164    2       13.214180670000       0.000000000000       9.343836760000
       165    1       11.562408080000       0.000000000000      11.679795950000
       166    2       12.388294370000       1.430477020000       7.007877570000
       167    2       10.736521790000       1.430477020000       9.343836760000
       168    2       14.040066960000       1.430477020000      11.679795950000
       169    2       14.865953250000       0.000000000000       7.007877570000
       170    2       18.169498420000       0.000000000000       9.343836760000
       171    2       16.517725830000       0.000000000000      11.679795950000
       172    2       17.343612120000       1.430477020000       7.007877570000
       173    2       15.691839540000       1.430477020000       9.343836760000
       174    2       18.995384710000       1.430477020000      11.679795950000
       175    2       19.821271000000       0.000000000000       7.007877570000
       176    1       23.124816170000       0.000000000000       9.343836760000
       177    2       21.473043580000       0.000000000000      11.679795950000
       178    2       22.298929870000       1.430477020000       7.007877570000
       179    2       20.647157290000       1.430477020000       9.343836760000
       180    2       23.950702460000       1.430477020000      11.679795950000
       181    2        0.000000000000       2.860954040000       7.007877570000
       182    2        3.303545170000       2.860954040000       9.343836760000
       183    2        1.651772580000       2.860954040000      11.679795950000
       184    2        2.477658870000       4.291431060000       7.007877570000
       185    2        0.825886290000       4.291431060000       9.343836760000
       186    2        4.129431460000       4.291431060000      11.679795950000
       187    2        4.955317750000       2.860954040000       7.007877570000
       188    2        8.258862920000       2.860954040000       9.343836760000
       189    2        6.607090330000       2.860954040000      11.679795950000
       190    2        7.432976620000       4.291431060000       7.007877570000
       191    2        5.781204040000       4.291431060000       9.343836760000
       192    2        9.084749210000       4.291431060000      11.679795950000
       193    2        9.910635500000       2.860954040000       7.007877570000
       194    2       13.214180670000       2.860954040000       9.343836760000
       195    2       11.562408080000       2.860954040000      11.679795950000
       196    2       12.388294370000       4.291431060000       7.007877570000
       197    2       10.736521790000       4.291431060000       9.343836760000
       198    2       14.040066960000       4.291431060000      11.679795950000
       199    2       14.865953250000       2.860954040000       7.007877570000
       200    2       18.169498420000       2.860954040000       9.343836760000
       201    2       16.517725830000       2.860954040000      11.679795950000
       202    2       17.343612120000       4.291431060000       7.007877570000
       203    2       15.691839540000       4.291431060000       9.343836760000
       204    2       18.995384710000       4.291431060000      11.679795950000
       205    2       19.821271000000       2.860954040000       7.007877570000
       206    2       23.124816170000       2.860954040000       9.343836760000
       207    2       21.473043580000       2.860954040000      11.679795950000
       208    2       22.298929870000       4.291431060000       7.007877570000
       209    2       20.647157290000       4.291431060000       9.343836760000
       210    2       23.950702460000       4.291431060000      11.679795950000
       211    2        0.000000000000       5.721908080000       7.007877570000
       212    2        3.303545170000       5.721908080000       9.343836760000
       213    2        1.651772580000       5.721908080000      11.679795950000
       214    2        2.477658870000       7.152385100000       7.007877570000
       215    2        0.825886290000       7.152385100000       9.343836760000
       216    2        4.129431460000       7.152385100000      11.679795950000
       217    2        4.955317750000       5.721908080000       7.007877570000
       218    2        8.258862920000       5.721908080000       9.343836760000
       219    2        6.607090330000       5.721908080000      11.679795950000
       220    2        7.432976620000       7.152385100000       7.007877570000
       221    2        5.781204040000       7.152385100000       9.343836760000
       222    2        9.084749210000       7.152385100000      11.679795950000
       223    2        9.910635500000       5.721908080000       7.007877570000
       224    2       13.214180670000       5.721908080000       9.343836760000
       225    2       11.562408080000       5.721908080000      11.679795950000
       226    1       12.388294370000       7.152385100000       7.007877570000
       227    2       10.736521790000       7.152385100000       9.343836760000
       228    2       14.040066960000       7.152385100000      11.679795950000
       229    2       14.865953250000       5.721908080000       7.007877570000
       230    2       18.169498420000       5.721908080000       9.343836760000
       231    2       16.517725830000       5.721908080000      11.679795950000
       232    2       17.343612120000       7.152385100000       7.007877570000
       233    2       15.691839540000       7.152385100000       9.343836760000
       234    2       18.995384710000       7.152385100000      11.679795950000
       235    2       19.821271000000       5.721908080000       7.007877570000
       236    2       23.124816170000       5.721908080000       9.343836760000
       237    2       21.473043580000       5.721908080000      11.679795950000
       238    2       22.298929870000       7.152385100000       7.007877570000
       239    2       20.647157290000       7.152385100000       9.343836760000
       240    2       23.950702460000       7.152385100000      11.679795950000
       241    2        0.000000000000       8.582862120000       7.007877570000
       242    2        3.303545170000       8.582862120000       9.343836760000
       243    4        1.651772580000       8.582862120000      11.679795950000
       244    2        2.477658870000      10.013339140000       7.007877570000
       245    2        0.825886290000      10.013339140000       9.343836760000
       246    2        4.129431460000      10.013339140000      11.679795950000
       247    2        4.955317750000       8.582862120000       7.007877570000
       248    2        8.258862920000       8.582862120000       9.343836760000
       249    2        6.607090330000       8.582862120000      11.679795950000
       250    2        7.432976620000      10.013339140000       7.007877570000
       251    2        5.781204040000      10.013339140000       9.343836760000
       252    2        9.084749210000      10.013339140000      11.679795950000
       253    2        9.910635500000       8.582862120000       7.007877570000
       254    2       13.214180670000       8.582862120000       9.343836760000
       255    2       11.562408080000       8.582862120000      11.679795950000
       256    2       12.388294370000      10.013339140000       7.007877570000
       257    2       10.736521790000      10.013339140000       9.343836760000
       258    2       14.040066960000      10.013339140000      11.679795950000
       259    2       14.865953250000       8.582862120000       7.007877570000
       260    2       18.169498420000       8.582862120000       9.343836760000
       261    2       16.517725830000       8.582862120000      11.679795950000
       262    2       17.343612120000      10.013339140000       7.007877570000
       263    2       15.691839540000      10.013339140000       9.343836760000
       264    2       18.995384710000      10.013339140000      11.679795950000
       265    2       19.821271000000       8.582862120000       7.007877570000
       266    2       23.124816170000       8.582862120000       9.343836760000
       267    2       21.473043580000       8.582862120000      11.679795950000
       268    2       22.298929870000      10.013339140000       7.007877570000
       269    2       20.647157290000      10.013339140000       9.343836760000
       270    2       23.950702460000      10.013339140000      11.679795950000
       271    2        0.000000000000      11.443816160000       7.007877570000
       272    2        3.303545170000      11.443816160000       9.343836760000
       273    2        1.651772580000      11.443816160000      11.679795950000
       274    2        2.477658870000      12.874293180000       7.007877570000
       275    1        0.825886290000      12.874293180000       9.343836760000
       276    2        4.129431460000      12.874293180000      11.679795950000
       277    2        4.955317750000      11.443816160000       7.007877570000
       278    2        8.258862920000      11.443816160000       9.343836760000
       279    2        6.607090330000      11.443816160000      11.679795950000
       280    2        7.432976620000      12.874293180000       7.007877570000
       281    2        5.781204040000      12.874293180000       9.343836760000
       282    2        9.084749210000      12.874293180000      11.679795950000
       283    2        9.910635500000      11.443816160000       7.007877570000
       284    2       13.214180670000      11.443816160000       9.343836760000
       285    2       11.562408080000      11.443816160000      11.679795950000
       286    2       12.388294370000      12.874293180000       7.007877570000
       287    2       10.736521790000      12.874293180000       9.343836760000
       288    2       14.040066960000      12.874293180000      11.679795950000
       289    2       14.865953250000      11.443816160000       7.007877570000
       290    2       18.169498420000      11.443816160000       9.343836760000
       291    2       16.517725830000      11.443816160000      11.679795950000
       292    3       17.343612120000      12.874293180000       7.007877570000
       293    2       15.691839540000      12.874293180000       9.343836760000
       294    2       18.995384710000      12.874293180000      11.679795950000
       295    2       19.821271000000      11.443816160000       7.007877570000
       296    2       23.124816170000      11.443816160000       9.343836760000
       297    2       21.473043580000      11.443816160000      11.679795950000
       298    2       22.298929870000      12.874293180000       7.007877570000
       299    2       20.647157290000      12.874293180000       9.343836760000
       300    2       23.950702460000      12.874293180000      11.679795950000
       301    2        0.000000000000       0.000000000000      14.015755140000
       302    2        3.303545170000       0.000000000000      16.351714330000
       303    2        1.651772580000       0.000000000000      18.687673520000
       304    2        2.477658870000       1.430477020000      14.015755140000
       305    2        0.825886290000       1.430477020000      16.351714330000
       306    2        4.129431460000       1.430477020000      18.687673520000
       307    2        4.955317750000       0.000000000000      14.015755140000
       308    2        8.258862920000       0.000000000000      16.351714330000
       309    2        6.607090330000       0.000000000000      18.687673520000
       310    2        7.432976620000       1.430477020000      14.015755140000
       311    2        5.781204040000       1.430477020000      16.351714330000
       312    2        9.084749210000       1.430477020000      18.687673520000
       313    2        9.910635500000       0.000000000000      14.015755140000
       314    2       13.214180670000       0.000000000000      16.351714330000
       315    2       11.562408080000       0.000000000000      18.687673520000
       316    2       12.388294370000       1.430477020000      14.015755140000
       317    2       10.736521790000       1.430477020000      16.351714330000
       318    2       14.040066960000       1.430477020000      18.687673520000
       319    2       14.865953250000       0.000000000000      14.015755140000
       320    2       18.169498420000       0.000000000000      16.351714330000
       321    2       16.517725830000       0.000000000000      18.687673520000
       322    1       17.343612120000       1.430477020000      14.015755140000
       323    3       15.691839540000       1.430477020000      16.351714330000
       324    2       18.995384710000       1.430477020000      18.687673520000
       325    2       19.821271000000       0.000000000000      14.015755140000
       326    2       23.124816170000       0.000000000000      16.351714330000
       327    2       21.473043580000       0.000000000000      18.687673520000
       328    2       22.298929870000       1.430477020000      14.015755140000
       329    2       20.647157290000       1.430477020000      16.351714330000
       330    2       23.950702460000       1.430477020000      18.687673520000
       331    2        0.000000000000       2.860954040000      14.015755140000
       332    2        3.303545170000       2.860954040000      16.351714330000
       333    2        1.651772580000       2.860954040000      18.687673520000
       334    2        2.477658870000       4.291431060000      14.015755140000
       335    2        0.825886290000       4.291431060000      16.351714330000
       336    2        4.129431460000       4.291431060000      18.687673520000
       337    2        4.955317750000       2.860954040000      14.015755140000
       338    2        8.258862920000       2.860954040000      16.351714330000
       339    2        6.607090330000       2.860954040000      18.687673520000
       340    2        7.432976620000       4.291431060000      14.015755140000
       341    2        5.781204040000       4.291431060000      16.351714330000
       342    2        9.084749210000       4.291431060000      18.687673520000
       343    2        9.910635500000       2.860954040000      14.015755140000
       344    3       13.214180670000       2.860954040000      16.351714330000
       345    2       11.562408080000       2.860954040000      18.687673520000
       346    4       12.388294370000       4.291431060000      14.015755140000
       347    2       10.736521790000       4.291431060000      16.351714330000
       348    2       14.040066960000       4.291431060000      18.687673520000
       349    2       14.865953250000       2.860954040000      14.015755140000
       350    2       18.169498420000       2.860954040000      16.351714330000
       351    2       16.517725830000       2.860954040000      18.687673520000
       352    2       17.343612120000       4.291431060000      14.015755140000
       353    2       15.691839540000       4.291431060000      16.351714330000
       354    4       18.995384710000       4.291431060000      18.687673520000
       355    2       19.821271000000       2.860954040000      14.015755140000
       356    2       23.124816170000       2.860954040000      16.351714330000
       357    2       21.473043580000       2.860954040000      18.687673520000
       358    2       22.298929870000       4.291431060000      14.015755140000
       359    2       20.647157290000       4.291431060000      16.351714330000
       360    2       23.950702460000       4.291431060000      18.687673520000
       361    2        0.000000000000       5.721908080000      14.015755140000
       362    2        3.303545170000       5.721908080000      16.351714330000
       363    2        1.651772580000       5.721908080000      18.687673520000
       364    2        2.477658870000       7.152385100000      14.015755140000
       365    2        0.825886290000       7.152385100000      16.351714330000
       366    2        4.129431460000       7.152385100000      18.687673520000
       367    2        4.955317750000       5.721908080000      14.015755140000
       368    2        8.258862920000       5.721908080000      16.351714330000
       369    2        6.607090330000       5.721908080000      18.687673520000